/*--------------------------------*- C++ -*----------------------------------*\
  =========                 |
  \\      /  F ield         | OpenFOAM: The Open Source CFD Toolbox
   \\    /   O peration     | Website:  https://openfoam.org
    \\  /    A nd           | Version:  12
     \\/     M anipulation  |
\*---------------------------------------------------------------------------*/
FoamFile
{
    format      ascii;
    class       pointScalarField;
    location    "0";
    object      motionScale;
}
// * * * * * * * * * * * * * * * * * * * * * * * * * * * * * * * * * * * * * //

dimensions      [];

internalField   nonuniform List<scalar> 
7344
(
1
1
0.9999999966
0.9999998745
0.9999793775
0.9999732852
0.9999083587
0.9998882772
0.999768342
0.9997234623
0.9995352228
0.9994511706
0.9991778796
0.9990357485
0.9986562641
0.9984314164
0.9979189925
0.9975795802
0.996900311
0.9964054658
0.9955162864
0.9948139212
0.9936600341
0.992684204
0.9911957695
0.9898635449
0.987951428
0.9861592572
0.9837095756
0.9813291561
0.9781963179
0.9750700757
0.9710679415
0.9670043456
0.9618951137
0.9566642637
0.950144684
0.94347493
0.9351595571
0.9267363892
0.916137889
0.9056070221
0.8921142155
0.8790917309
0.8619473778
0.8460409807
0.8243237605
0.805170582
0.7777900355
0.7551176314
0.720838088
0.6945556461
0.6520768166
0.6224015147
0.5705410338
0.5381572703
0.4762047089
0.442436984
0.3707769727
0.3377244433
0.2588462068
0.2293727073
0.1493604515
0.1267604123
0.05721657753
0.04431379939
0.00425823334
0.001733182552
0
0
0
0
1
1
0.9999819974
0.999917213
0.9997883105
0.9995728119
0.9992416712
0.998757476
0.9980721748
0.9971242064
0.995834885
0.9941038572
0.9918034138
0.9887713978
0.984802416
0.9796370335
0.9729486341
0.9643276858
0.9532633136
0.9391224297
0.9211273396
0.8983339499
0.869614777
0.833654416
0.7889706914
0.7339833574
0.6671650349
0.5873268057
0.4941126469
0.3887969818
0.2754808559
0.1627231252
0.0654367313
0.006371174283
0
0
1
1
0.9999823844
0.9999185421
0.9997913374
0.9995785606
0.9992515153
0.9987732451
0.9980962902
0.9972022149
0.9959722369
0.9943110262
0.992092659
0.989157206
0.9853020202
0.9802710255
0.9737416802
0.9653093463
0.9544689421
0.9405940879
0.9229145914
0.899627743
0.8712723077
0.8357582207
0.7916104458
0.7372477421
0.6711261616
0.5920136544
0.4994699521
0.394628234
0.2813814319
0.1680264989
0.06922787012
0.007663793354
0
0
1
1
0.9999812049
0.9999145376
0.9997823132
0.9995616133
0.9992368494
0.9987711126
0.9981046232
0.9971749256
0.9959023742
0.9941855416
0.9918955123
0.9888688071
0.9848986533
0.9797242999
0.9730180882
0.9643700558
0.9532700205
0.9390874518
0.9210500971
0.8973122965
0.868509699
0.8325237311
0.7879097707
0.7331347595
0.6667241677
0.5875365494
0.4952349215
0.3910433453
0.2788802825
0.1669110537
0.069382207
0.008146063393
0
0
1
0.9999999934
0.9999789366
0.9999069146
0.9997651763
0.999544184
0.9992039204
0.9987013217
0.9979848086
0.996988593
0.9956288624
0.9937990585
0.9913640272
0.9881528
0.9839497456
0.9784838271
0.9714157329
0.9623227449
0.9506814259
0.9352237314
0.9163511919
0.892567514
0.8627690878
0.8256892952
0.7799295783
0.7240383282
0.6566687345
0.576860715
0.4845078838
0.3810828144
0.2706882628
0.1614464241
0.06706891933
0.008056072063
0
0
1
0.9999999521
0.999976174
0.9998977603
0.9997446886
0.9995017048
0.9991266749
0.998576745
0.9977970915
0.9967178274
0.9952500464
0.9932809311
0.9906677165
0.9872302842
0.9827421523
0.9766949205
0.9691514719
0.9594796756
0.9471399282
0.9314736706
0.9116862458
0.8868331518
0.8558147451
0.8173877561
0.7702068874
0.7129167168
0.6443233769
0.5636865652
0.4711830621
0.3685969613
0.2602753688
0.1543240494
0.06385703373
0.007784092272
0
0
1
0.9999998939
0.9999739156
0.999890367
0.9997282089
0.9994602444
0.9990514599
0.998456942
0.9976192669
0.9964652422
0.9949018518
0.9928112364
0.9900445145
0.9864142349
0.9816852482
0.9755638126
0.9676848256
0.9575972407
0.9447480375
0.9284656562
0.9079447045
0.882235186
0.8502417197
0.8107415343
0.7624347676
0.7040470176
0.6345121025
0.5532715582
0.4607336026
0.3589313339
0.2523945238
0.1491780867
0.06183738582
0.007862068205
0
0
1
0.9999998886
0.9999737419
0.9998898011
0.9997269487
0.9994578879
0.9990474784
0.9984506462
0.9976097671
0.9964513983
0.9948822157
0.9927839843
0.9900073708
0.9863643913
0.9816192839
0.9754776292
0.9675736194
0.9574555487
0.9445699191
0.9282451019
0.9076764105
0.8819158906
0.8498723611
0.8103305417
0.7620027787
0.7036331292
0.6341811665
0.5531206663
0.4608931082
0.359550722
0.2535954194
0.1509463714
0.06381879244
0.009036850635
0
0
1
0.999999975
0.9999774119
0.9999018466
0.9997538232
0.9995081665
0.9991324291
0.9985849385
0.9978123421
0.9967465332
0.9953008104
0.9933651021
0.9908000568
0.9874297773
0.9830329658
0.9773322526
0.9699815377
0.960551297
0.9485120685
0.9332167954
0.9138835134
0.8895811947
0.8592236685
0.8215797827
0.7753127523
0.7190683761
0.6516406378
0.5722534762
0.4810067152
0.3795357493
0.2719149239
0.1657679923
0.07339409314
0.01241994027
0
0
1
1
0.9999998368
0.9999998239
0.9999721834
0.9999718322
0.9998846955
0.9998835571
0.9997154802
0.9997129458
0.9994362163
0.9994314706
0.9990104129
0.9990023751
0.9983912183
0.9983784681
0.9975186706
0.997499354
0.9963162561
0.9962879678
0.9946866189
0.9946462556
0.9925062357
0.9924498128
0.9896188423
0.9895412683
0.9858273833
0.9858923185
0.9808842464
0.9811773683
0.974794109
0.9750221329
0.9668109431
0.9670403753
0.9565324891
0.9567533361
0.9433733611
0.9435720743
0.9266204885
0.926779163
0.9054162592
0.9055117941
0.8787467227
0.8787500455
0.8454411731
0.8453167202
0.8041934023
0.803899183
0.7536206618
0.7531094394
0.6923842444
0.6916066536
0.6194054711
0.6183162496
0.5342213747
0.5327902816
0.4375313959
0.4357606512
0.331980409
0.329930238
0.2189805246
0.2210076914
0.1175732921
0.1188855108
0.03804326229
0.03616568489
0.000570078111
0.0003344939848
0
0
0
0
1
0.9999998469
0.9999724685
0.9998856207
0.9997175408
0.9994400757
0.9990169503
0.9984015895
0.997534384
0.9963392687
0.9947194561
0.9925521398
0.9896819565
0.985912977
0.9809989875
0.9746318539
0.9667733214
0.956522705
0.943404385
0.9267088159
0.9055824902
0.879016039
0.8458435411
0.8047632138
0.7543953584
0.6934012382
0.6206963914
0.5358023707
0.4351972648
0.3299706842
0.2216327959
0.1199040613
0.03960979259
0.0008086465624
0
0
1
0.9999998557
0.9999727204
0.999886439
0.9997193642
0.9994434915
0.999022737
0.9984107704
0.9975482948
0.9963596424
0.9947485288
0.9925927827
0.9897378387
0.9859887651
0.9811005873
0.9747666989
0.9666052275
0.9561434042
0.9433810285
0.926729678
0.9056653415
0.8791827889
0.8461204832
0.8051808014
0.7549871161
0.6942012092
0.6185446529
0.5336847181
0.4374170648
0.3323447997
0.2239974221
0.1219901974
0.0410261647
0.001055314165
0
0
1
0.999999863
0.9999729377
0.9998871458
0.9997209396
0.9994464431
0.9990277377
0.9984187049
0.9975603178
0.9963772518
0.9947736578
0.9926279132
0.989786143
0.9860542777
0.9811884144
0.9748832681
0.9667585802
0.9563435271
0.9430595072
0.9262022793
0.9049254296
0.8782287775
0.8449578815
0.8038246739
0.753464855
0.6925553538
0.6200248221
0.535400472
0.4393416889
0.3344055853
0.2260537428
0.1238104943
0.04227279769
0.001295554245
0
0
1
0.9999998689
0.9999731142
0.9998877201
0.9997222199
0.9994488422
0.9990318028
0.9984251553
0.9975700922
0.9963915683
0.9947940882
0.9926564759
0.9898254174
0.9861075446
0.9812598265
0.9749780528
0.966883278
0.9565062616
0.9432702793
0.9264732628
0.9052712288
0.8786665715
0.8455073329
0.8045074035
0.754303178
0.6935698323
0.6212300204
0.5367981371
0.440910523
0.3360870276
0.2277341192
0.1253021998
0.04330171669
0.001509472081
0
0
1
0.9999998729
0.9999732371
0.9998881206
0.999723113
0.9994505159
0.999034639
0.9984296558
0.9975769123
0.9964015579
0.9948083442
0.9926764069
0.9898528234
0.9861447155
0.9813096603
0.9750441983
0.9669703003
0.9566198316
0.9434173789
0.9266623925
0.905512588
0.8789721612
0.8458908951
0.8049840578
0.7548885466
0.6942783398
0.6220719423
0.5377748547
0.4420074007
0.3372634965
0.2289112107
0.1263493593
0.0440278838
0.001668673419
0
0
0.9986965361
0.9987136291
0.9986365817
0.9985176612
0.9983185309
0.9980112892
0.9975595441
0.9969162068
0.9960207868
0.9947960159
0.9931436092
0.9909389606
0.9880245623
0.9842019228
0.9792217559
0.9727722365
0.9644652077
0.9538204059
0.9402481258
0.923031378
0.9013096412
0.8740680204
0.8401382867
0.7982222882
0.746954019
0.6879580658
0.6149207373
0.5297026522
0.4330418087
0.3232759972
0.2151505233
0.114334658
0.03595213758
0.000316135648
0
0
0.9938365053
0.9938545041
0.9937734543
0.9936487346
0.9934407807
0.9931216914
0.9926554645
0.9919957639
0.9910831109
0.9898413752
0.9881734235
0.9859557486
0.9830318763
0.9792043151
0.9742248081
0.9677826697
0.9594910836
0.9488714223
0.9353360127
0.9181703966
0.8965171899
0.8693653491
0.8355513086
0.7937824639
0.7426992538
0.6809999661
0.6076621722
0.5223049337
0.4257422998
0.3207713147
0.2131973275
0.1129920259
0.03525549959
0.0002595089243
0
0
0.9846700282
0.9846882353
0.9846062545
0.9844801387
0.9842699516
0.9839476518
0.9834771652
0.9828122119
0.9818935664
0.980645616
0.97897206
0.9767505627
0.9738261608
0.9700032018
0.9650355935
0.9586151659
0.9503580331
0.9397890199
0.9263245732
0.9092551995
0.8877295236
0.8607437607
0.8271430463
0.7856450612
0.7349021484
0.6736259503
0.6008083305
0.5160825092
0.4202746491
0.3161887532
0.2096272979
0.1105427932
0.03399180856
0.0001699312365
0
0
0.9704052054
0.9704233944
0.9703414972
0.9702155184
0.9700055814
0.969683717
0.9692139741
0.9685502786
0.967633739
0.9663892681
0.9647213584
0.9625088279
0.959598324
0.9557963599
0.9508596571
0.9444836016
0.9362887089
0.9258051812
0.9124559888
0.8955395247
0.8742139252
0.8474868287
0.8142169858
0.7731380982
0.7229209873
0.6622979753
0.5902830159
0.506531181
0.4118872955
0.3091660326
0.204165328
0.1068079459
0.03208310332
6.861762468e-05
0
0
0.9501904291
0.9502084584
0.9501272808
0.9500024115
0.9497943313
0.9494753309
0.9490098053
0.9483521419
0.9474440679
0.9462113287
0.9445595399
0.9423690319
0.9394884779
0.9357270814
0.9308450925
0.9245424602
0.9164455121
0.9060917502
0.8929131979
0.8762193586
0.8551818789
0.8288246774
0.7960259147
0.7555421044
0.7060703349
0.6463722744
0.5754931739
0.4931190122
0.400120946
0.2993286005
0.1965332532
0.1016152471
0.02946806347
2.365719033e-06
0
0
0.9231368968
0.9231546444
0.9230747352
0.9229518186
0.9227469953
0.9224329955
0.9219747836
0.9213274845
0.9204337815
0.9192206594
0.9175953427
0.9154402511
0.9126067705
0.9089076211
0.904107597
0.8979124881
0.8899560772
0.8797852979
0.8668439903
0.8504563074
0.8298118611
0.8039563489
0.7717939855
0.732111951
0.6836426514
0.6251871869
0.5558328149
0.475306926
0.3845158528
0.2863089973
0.1864682517
0.0948163881
0.02611756247
0
0
0
0.888355548
0.8883728921
0.8882948005
0.8881746802
0.8879745183
0.8876676686
0.8872198991
0.8865873685
0.8857140878
0.8845287454
0.8829407498
0.8808353188
0.8780674208
0.8744543587
0.8697667792
0.8637179276
0.8559510505
0.8460250297
0.8333986923
0.8174148332
0.7972860241
0.7720859133
0.7407522691
0.7021118554
0.6549427185
0.5980969242
0.5307159852
0.4525806893
0.3646425533
0.2697760334
0.1737500733
0.08631181509
0.02205657633
0
0
0
0.845012677
0.845029488
0.8449537969
0.8448373697
0.8446433623
0.8443459505
0.8439119582
0.8432989005
0.8424525247
0.8413037398
0.8397647867
0.8377244946
0.835042428
0.8315417319
0.8270004662
0.8211412645
0.8136192274
0.8040081497
0.7917855236
0.7763173495
0.7568448049
0.7324764185
0.7021919142
0.664867634
0.6193388527
0.5645215654
0.4996253003
0.4244976566
0.340146411
0.2494766244
0.1582395736
0.0760852859
0.0173940308
0
0
0
0.7924092799
0.7924254174
0.7923527585
0.7922409953
0.7920547615
0.7917692677
0.7913526714
0.7907641953
0.7899517723
0.7888491011
0.7873719767
0.7854137479
0.7828397171
0.7794803005
0.7751227555
0.7695013217
0.7622857077
0.7530680298
0.7413486545
0.7265219742
0.7078641346
0.6845263009
0.6555394989
0.6198407334
0.5763353339
0.5240175499
0.4621800904
0.3907520577
0.3108094202
0.2252933615
0.1399311831
0.06425027783
0.0123621438
0
0
0
0.7300894206
0.7301047326
0.7300357907
0.7299297453
0.7297530398
0.7294821547
0.7290868792
0.7285285288
0.7277577105
0.7267115353
0.7253101418
0.7234523969
0.7210105999
0.7178240209
0.713691097
0.7083601503
0.7015185769
0.6927806327
0.6816742709
0.6676280678
0.6499602135
0.6278730877
0.6004593049
0.5667286681
0.5256705417
0.4763729778
0.4182282311
0.3512625989
0.2766326668
0.1973207659
0.1190217445
0.05111009416
0.007366467744
0
0
0
0.6579823358
0.6579966592
0.657932169
0.6578329719
0.6576676782
0.6574142889
0.6570445472
0.6565222727
0.6558012744
0.6548227448
0.6535120172
0.6517745547
0.6494910147
0.6465112363
0.6426469881
0.6376633691
0.6312688211
0.6231039056
0.6127293113
0.5996141187
0.5831262697
0.5625286721
0.5369866474
0.5055958475
0.4674446226
0.4217313403
0.3679650213
0.3062854079
0.2379420734
0.1659623761
0.09599731248
0.03723263788
0.003046924574
0
0
0
0.5765810634
0.5765942262
0.5765349615
0.5764438026
0.5762919035
0.5760590505
0.5757192792
0.5752393482
0.5745768223
0.5736776832
0.5724733567
0.57087704
0.5687791875
0.5660420204
0.562492919
0.5579166141
0.5520461546
0.5445528345
0.5350355452
0.5230105836
0.5079038174
0.489048536
0.465694489
0.4370368642
0.4022785744
0.3607453495
0.3120805161
0.2565534083
0.1955181257
0.1320488994
0.07173760929
0.02353895953
0.0003483207692
0
0
0
0.4871562599
0.4871680861
0.4871148396
0.4870329381
0.4868964662
0.4866872638
0.4863820087
0.4859508423
0.4853556547
0.4845479404
0.4834661394
0.4820323498
0.4801482992
0.4776904511
0.4745041394
0.4703966569
0.4651293224
0.4584087074
0.4498775237
0.4391061757
0.425586837
0.4087332553
0.3878915483
0.3623703062
0.3315026495
0.2947585893
0.2519328186
0.203439374
0.1507465135
0.09697399941
0.04763431222
0.01140132976
0
0
0
0
0.3919965054
0.3920068215
0.3919603743
0.3918889314
0.3917698885
0.3915874067
0.3913211461
0.3909450719
0.3904259586
0.3897215288
0.3887781423
0.387527949
0.3858854038
0.3837430476
0.3809664721
0.3773884229
0.3728020904
0.3669538015
0.3595356115
0.350178798
0.3384500505
0.3238534155
0.305842975
0.283854087
0.2573649903
0.2260058048
0.1897380536
0.1491332701
0.1057801927
0.06283812154
0.02571348111
0.002741108039
0
0
0
0
0.2946544682
0.2946631127
0.2946241916
0.2945643259
0.2944645744
0.2943116683
0.2940885695
0.2937734737
0.2933385619
0.2927484477
0.2919582552
0.2909112551
0.2895359811
0.2877427554
0.2854195673
0.2824272945
0.2785943413
0.273710929
0.2675235577
0.2597306093
0.2499808194
0.2378775032
0.222993197
0.2049019662
0.1832402342
0.1578116742
0.1287570136
0.09681409001
0.06369334412
0.03258119676
0.008743464181
0
0
0
0
0
0.200160663
0.2001674992
0.20013672
0.2000893783
0.2000104969
0.1998895863
0.1997131802
0.1994640508
0.1991202263
0.198653774
0.1980292962
0.1972020879
0.1961159039
0.1947002852
0.1928674248
0.1905085876
0.1874901942
0.1836498278
0.1787926839
0.172689412
0.1650769832
0.1556652759
0.14415367
0.1302642546
0.1138014449
0.09475186561
0.07344284519
0.0507812689
0.02859323836
0.01007140012
0.0002969175986
0
0
0
0
0
0.1151424256
0.1151473567
0.1151251545
0.1150910055
0.1150341082
0.1149469012
0.1148196803
0.1146400376
0.1143921596
0.1140559627
0.113606029
0.1130103139
0.1122285929
0.1112106318
0.109894083
0.1082021628
0.1060412418
0.103298635
0.09984110883
0.09551502155
0.09014962072
0.08356596813
0.07559536542
0.06611316558
0.05509659097
0.04271857088
0.02949319394
0.01649063115
0.005636871418
9.919904947e-05
0
0
0
0
0
0
0.04775607712
0.04775906551
0.04774561113
0.04772491861
0.04769044508
0.04763761467
0.0475605604
0.04745178965
0.04730176887
0.04709841736
0.04682649117
0.04646684904
0.04599559131
0.04538308449
0.04459290398
0.04358077747
0.0422936972
0.04066949339
0.03863739358
0.03612042438
0.03304106426
0.02933235623
0.02495789682
0.01994579388
0.01444393575
0.008806597631
0.003725033129
0.0004157698788
0
0
0
0
0
0
0
0
0.007308972673
0.007310058389
0.007305170647
0.007297655282
0.007285139748
0.007265971912
0.007238041544
0.007198668013
0.007144465295
0.007071185225
0.006973539476
0.006845009395
0.006677659885
0.006461993684
0.006186907748
0.005839863785
0.00540745941
0.00487671056
0.004237548138
0.003487330456
0.002638628386
0.001732215124
0.0008581670297
0.0001893234833
0
0
0
0
0
0
0
0
0
0
0
0
0
0
0
0
0
0
0
0
0
0
0
0
0
0
0
0
0
0
0
0
0
0
0
0
0
0
0
0
0
0
0
0
0
0
0
0
0
0
0
0
0
0
0
0
0
0
0
0
0
0
0
0
0
0
0
0
0
0
0
0
0
0
0
0
0
0
0
0
0
0
0
0
0
0
0
0
0
0
0
0
0
0
0
0
0
0
0
0
0
0
0
0
0
0
0
0
0
0
0
0
0
0
0
0
0
0
0
0
0
0
0
0
0
0
0
0
0
0
0
0
0
0
0
0
0
0
0
0
0
0
0
0
0
0
0
0
0
0
0
0
0
0
0
0
0
0
0
0
0
0
0
0
0
0
0
0
0
0
0
0
0
0
0
0
0
0
0
0
0
0
0
0
0
0
0
0
0
0
0
0
0
0
0
0
0
0
0
0
0
0
0
0
0
0
0
0
0
0
0
0
0
0
0
0
0
0
0
0
0
0
0
0
0
0
0
0
0
0
0
0
0
0
0
0
0
0
0
0
0
0
0
0
0
0
0
0
0
0
0
0
0
0
0
0
0
0
0
0
0
0
0
0
0
0
0
0
0
0
0
0
0
0
0
0
0
0
0
0
0
0
0
0
0
0
0
0
0
0
0
0
0
0
0
0
0
0
0
0
0
0
0
0
0
0
0
0
0
0
0
0
0
0
0
0
0
0
0
0
0
0
0
0
0
0
0
0
0
0
0
0
0
0
0
0
0
0
0
0
0
0
0
0
0
0
0
0
0
0
0
0
0
0
0
0
0
0
0
0
0
0
0
0
0
0
0
0
0
0
0
0
0
0
0
0
0
0
0
0
0
0
0
0
0
0
0
0
0
0
0
0
0
0
0
0
0
0
0
0
0
0
0
0
0
0
0
0
0
0
0
0
0
0
0
0
0
0
0
0
0
0
0
0
0
0
0
0
0
0
0
0
0
0
0
0
0
0
0
0
0
0
0
0
0
0
0
0
0
0
0
0
0
0
0
0
0
0
0
0
0
0
0
0
0
0
0
0
0
0
0
0
0
0
0
0
0
0
0
0
0
0
0
0
0
0
0
0
0
0
0
0
0
0
0
0
0
0
0
0
0
0
0
0
0
0
0
0
0
0
0
0
0
0
0
0
0
0
0
0
0
0
0
0
0
0
0
0
0
0
0
0
0
0
0
0
0
0
0
0
0
0
0
0
0
0
0
0
0
0
0
0
0
0
0
0
0
0
0
0
0
0
0
0
0
0
0
0
0
0
0
0
0
0
0
0
0
0
0
0
0
0
0
0
0
0
0
0
1
0.9999998745
0.9999999966
1
0.9999732852
0.9999793775
0.9998882772
0.9999083587
0.9997234623
0.999768342
0.9994511706
0.9995352228
0.9990357485
0.9991778796
0.9984314164
0.9986562641
0.9975795802
0.9979189925
0.9964054658
0.996900311
0.9948139212
0.9955162864
0.992684204
0.9936600341
0.9898635449
0.9911957695
0.9861592572
0.987951428
0.9813291561
0.9837095756
0.9750700757
0.9781963179
0.9670043456
0.9710679415
0.9566642637
0.9618951137
0.94347493
0.950144684
0.9267363892
0.9351595571
0.9056070221
0.916137889
0.8790917309
0.8921142155
0.8460409807
0.8619473778
0.805170582
0.8243237605
0.7551176314
0.7777900355
0.6945556461
0.720838088
0.6224015147
0.6520768166
0.5381572703
0.5705410338
0.442436984
0.4762047089
0.3377244433
0.3707769727
0.2293727073
0.2588462068
0.1267604123
0.1493604515
0.04431379939
0.05721657753
0.001733182552
0.00425823334
0
0
0
0
1
1
0.9999819974
0.999917213
0.9997883105
0.9995728119
0.9992416712
0.998757476
0.9980721748
0.9971242064
0.995834885
0.9941038572
0.9918034138
0.9887713978
0.984802416
0.9796370335
0.9729486341
0.9643276858
0.9532633136
0.9391224297
0.9211273396
0.8983339499
0.869614777
0.833654416
0.7889706914
0.7339833574
0.6671650349
0.5873268057
0.4941126469
0.3887969818
0.2754808559
0.1627231252
0.0654367313
0.006371174283
0
0
1
1
0.9999823844
0.9999185421
0.9997913374
0.9995785606
0.9992515153
0.9987732451
0.9980962902
0.9972022149
0.9959722369
0.9943110262
0.992092659
0.989157206
0.9853020202
0.9802710255
0.9737416802
0.9653093463
0.9544689421
0.9405940879
0.9229145914
0.899627743
0.8712723077
0.8357582207
0.7916104458
0.7372477421
0.6711261616
0.5920136544
0.4994699521
0.394628234
0.2813814319
0.1680264989
0.06922787012
0.007663793354
0
0
1
1
0.9999812049
0.9999145376
0.9997823132
0.9995616133
0.9992368494
0.9987711126
0.9981046232
0.9971749256
0.9959023742
0.9941855416
0.9918955123
0.9888688071
0.9848986533
0.9797242999
0.9730180882
0.9643700558
0.9532700205
0.9390874518
0.9210500971
0.8973122965
0.868509699
0.8325237311
0.7879097707
0.7331347595
0.6667241677
0.5875365494
0.4952349215
0.3910433453
0.2788802825
0.1669110537
0.069382207
0.008146063393
0
0
0.9999999934
1
0.9999789366
0.9999069146
0.9997651763
0.999544184
0.9992039204
0.9987013217
0.9979848086
0.996988593
0.9956288624
0.9937990585
0.9913640272
0.9881528
0.9839497456
0.9784838271
0.9714157329
0.9623227449
0.9506814259
0.9352237314
0.9163511919
0.892567514
0.8627690878
0.8256892952
0.7799295783
0.7240383282
0.6566687345
0.576860715
0.4845078838
0.3810828144
0.2706882628
0.1614464241
0.06706891933
0.008056072063
0
0
0.9999999521
1
0.999976174
0.9998977603
0.9997446886
0.9995017048
0.9991266749
0.998576745
0.9977970915
0.9967178274
0.9952500464
0.9932809311
0.9906677165
0.9872302842
0.9827421523
0.9766949205
0.9691514719
0.9594796756
0.9471399282
0.9314736706
0.9116862458
0.8868331518
0.8558147451
0.8173877561
0.7702068874
0.7129167168
0.6443233769
0.5636865652
0.4711830621
0.3685969613
0.2602753688
0.1543240494
0.06385703373
0.007784092272
0
0
0.9999998939
1
0.9999739156
0.999890367
0.9997282089
0.9994602444
0.9990514599
0.998456942
0.9976192669
0.9964652422
0.9949018518
0.9928112364
0.9900445145
0.9864142349
0.9816852482
0.9755638126
0.9676848256
0.9575972407
0.9447480375
0.9284656562
0.9079447045
0.882235186
0.8502417197
0.8107415343
0.7624347676
0.7040470176
0.6345121025
0.5532715582
0.4607336026
0.3589313339
0.2523945238
0.1491780867
0.06183738582
0.007862068205
0
0
0.9999998886
1
0.9999737419
0.9998898011
0.9997269487
0.9994578879
0.9990474784
0.9984506462
0.9976097671
0.9964513983
0.9948822157
0.9927839843
0.9900073708
0.9863643913
0.9816192839
0.9754776292
0.9675736194
0.9574555487
0.9445699191
0.9282451019
0.9076764105
0.8819158906
0.8498723611
0.8103305417
0.7620027787
0.7036331292
0.6341811665
0.5531206663
0.4608931082
0.359550722
0.2535954194
0.1509463714
0.06381879244
0.009036850635
0
0
0.9999998239
0.9999998368
1
0.9999718322
0.9999721834
0.9998835571
0.9998846955
0.9997129458
0.9997154802
0.9994314706
0.9994362163
0.9990023751
0.9990104129
0.9983784681
0.9983912183
0.997499354
0.9975186706
0.9962879678
0.9963162561
0.9946462556
0.9946866189
0.9924498128
0.9925062357
0.9895412683
0.9896188423
0.9858923185
0.9858273833
0.9811773683
0.9808842464
0.9750221328
0.974794109
0.9670403753
0.9668109431
0.9567533361
0.9565324891
0.9435720743
0.9433733611
0.9267791629
0.9266204885
0.905511794
0.9054162592
0.8787500455
0.8787467227
0.8453167202
0.8454411731
0.8038991829
0.8041934023
0.7531094394
0.7536206618
0.6916066536
0.692384244
0.6183162492
0.6194054711
0.5327902816
0.5342213747
0.4357606512
0.4375313959
0.329930238
0.331980409
0.2210076914
0.2189805246
0.1188855108
0.1175732921
0.03616568494
0.03804326229
0.000334493975
0.000570078111
0
0
0
0
0.9999998469
1
0.9999724685
0.9998856207
0.9997175408
0.9994400757
0.9990169503
0.9984015895
0.997534384
0.9963392687
0.9947194561
0.9925521398
0.9896819565
0.985912977
0.9809989875
0.9746318539
0.9667733214
0.956522705
0.943404385
0.9267088159
0.9055824902
0.879016039
0.8458435411
0.8047632138
0.7543953584
0.6934012382
0.6206963914
0.5358023707
0.4351972648
0.3299706842
0.2216327959
0.1199040613
0.03960979259
0.0008086465624
0
0
0.9999998557
1
0.9999727204
0.999886439
0.9997193642
0.9994434915
0.999022737
0.9984107704
0.9975482948
0.9963596424
0.9947485288
0.9925927827
0.9897378387
0.9859887651
0.9811005873
0.9747666989
0.9666052275
0.9561434042
0.9433810285
0.926729678
0.9056653415
0.8791827889
0.8461204832
0.8051808014
0.7549871161
0.6942012092
0.6185446529
0.5336847181
0.4374170648
0.3323447997
0.2239974221
0.1219901974
0.0410261647
0.001055314165
0
0
0.999999863
1
0.9999729377
0.9998871458
0.9997209396
0.9994464431
0.9990277377
0.9984187049
0.9975603178
0.9963772518
0.9947736578
0.9926279132
0.989786143
0.9860542777
0.9811884144
0.9748832681
0.9667585802
0.9563435271
0.9430595072
0.9262022793
0.9049254296
0.8782287775
0.8449578815
0.8038246739
0.753464855
0.6925553538
0.6200248221
0.535400472
0.4393416889
0.3344055853
0.2260537428
0.1238104943
0.04227279769
0.001295554245
0
0
0.9999998689
1
0.9999731142
0.9998877201
0.9997222199
0.9994488422
0.9990318028
0.9984251553
0.9975700922
0.9963915683
0.9947940882
0.9926564759
0.9898254174
0.9861075446
0.9812598265
0.9749780528
0.966883278
0.9565062616
0.9432702793
0.9264732628
0.9052712288
0.8786665715
0.8455073329
0.8045074035
0.754303178
0.6935698323
0.6212300204
0.5367981371
0.440910523
0.3360870276
0.2277341192
0.1253021998
0.04330171669
0.001509472081
0
0
0.9999998729
1
0.9999732371
0.9998881206
0.999723113
0.9994505159
0.999034639
0.9984296558
0.9975769123
0.9964015579
0.9948083442
0.9926764069
0.9898528234
0.9861447155
0.9813096603
0.9750441983
0.9669703003
0.9566198316
0.9434173789
0.9266623925
0.905512588
0.8789721612
0.8458908951
0.8049840578
0.7548885466
0.6942783398
0.6220719423
0.5377748547
0.4420074007
0.3372634965
0.2289112107
0.1263493593
0.0440278838
0.001668673419
0
0
0.9986965361
0.9986365817
0.9985176612
0.9983185309
0.9980112892
0.9975595441
0.9969162068
0.9960207868
0.9947960159
0.9931436092
0.9909389606
0.9880245623
0.9842019228
0.9792217559
0.9727722365
0.9644652077
0.9538204059
0.9402481258
0.923031378
0.9013096412
0.8740680204
0.8401382868
0.7982222883
0.7469540191
0.6879580658
0.6149207369
0.5297026522
0.4330418087
0.3232759973
0.2151505234
0.1143346581
0.03595213762
0.0003161356384
0
0
0.9938365053
0.9937734543
0.9936487346
0.9934407807
0.9931216914
0.9926554645
0.9919957639
0.9910831109
0.9898413752
0.9881734235
0.9859557486
0.9830318763
0.9792043151
0.9742248081
0.9677826697
0.9594910836
0.9488714223
0.9353360127
0.9181703966
0.8965171899
0.8693653491
0.8355513087
0.793782464
0.7426992539
0.6809999662
0.607662172
0.5223049338
0.4257422999
0.3207713148
0.2131973276
0.112992026
0.03525549964
0.0002595089157
0
0
0.9846700282
0.9846062545
0.9844801387
0.9842699516
0.9839476518
0.9834771652
0.9828122119
0.9818935664
0.980645616
0.97897206
0.9767505627
0.9738261608
0.9700032018
0.9650355935
0.9586151659
0.9503580331
0.9397890199
0.9263245732
0.9092551995
0.8877295236
0.8607437607
0.8271430464
0.7856450613
0.7349021485
0.6736259504
0.6008083303
0.5160825093
0.4202746492
0.3161887533
0.209627298
0.1105427933
0.0339918086
0.0001699312295
0
0
0.9704052054
0.9703414972
0.9702155184
0.9700055814
0.969683717
0.9692139741
0.9685502786
0.967633739
0.9663892681
0.9647213584
0.9625088279
0.959598324
0.9557963599
0.9508596571
0.9444836016
0.9362887089
0.9258051812
0.9124559888
0.8955395247
0.8742139252
0.8474868287
0.8142169859
0.7731380983
0.7229209875
0.6622979754
0.5902830157
0.5065311812
0.4118872956
0.3091660327
0.2041653281
0.106807946
0.03208310337
6.861762025e-05
0
0
0.9501904291
0.9501272808
0.9500024115
0.9497943313
0.9494753309
0.9490098053
0.9483521419
0.9474440679
0.9462113287
0.9445595399
0.9423690319
0.9394884779
0.9357270814
0.9308450925
0.9245424602
0.9164455121
0.9060917502
0.8929131979
0.8762193586
0.8551818789
0.8288246774
0.7960259148
0.7555421045
0.706070335
0.6463722745
0.5754931737
0.4931190123
0.4001209461
0.2993286006
0.1965332533
0.1016152472
0.02946806351
2.365718215e-06
0
0
0.9231368968
0.9230747352
0.9229518186
0.9227469953
0.9224329955
0.9219747836
0.9213274845
0.9204337815
0.9192206594
0.9175953427
0.9154402511
0.9126067705
0.9089076211
0.904107597
0.8979124881
0.8899560772
0.8797852979
0.8668439903
0.8504563074
0.8298118611
0.8039563489
0.7717939856
0.7321119511
0.6836426515
0.625187187
0.5558328146
0.4753069261
0.3845158529
0.2863089974
0.1864682518
0.09481638817
0.02611756251
0
0
0
0.888355548
0.8882948005
0.8881746802
0.8879745183
0.8876676686
0.8872198991
0.8865873685
0.8857140878
0.8845287454
0.8829407498
0.8808353188
0.8780674208
0.8744543587
0.8697667792
0.8637179276
0.8559510505
0.8460250297
0.8333986924
0.8174148332
0.7972860241
0.7720859133
0.7407522691
0.7021118555
0.6549427186
0.5980969243
0.530715985
0.4525806894
0.3646425534
0.2697760335
0.1737500734
0.08631181516
0.02205657637
0
0
0
0.845012677
0.8449537969
0.8448373697
0.8446433623
0.8443459505
0.8439119582
0.8432989005
0.8424525247
0.8413037398
0.8397647867
0.8377244946
0.835042428
0.8315417319
0.8270004662
0.8211412645
0.8136192274
0.8040081497
0.7917855236
0.7763173495
0.7568448049
0.7324764185
0.7021919143
0.6648676341
0.6193388528
0.5645215655
0.4996253001
0.4244976567
0.3401464111
0.2494766245
0.1582395737
0.07608528596
0.01739403083
0
0
0
0.7924092799
0.7923527585
0.7922409953
0.7920547615
0.7917692677
0.7913526714
0.7907641953
0.7899517723
0.7888491011
0.7873719767
0.7854137479
0.7828397171
0.7794803005
0.7751227555
0.7695013217
0.7622857077
0.7530680298
0.7413486545
0.7265219742
0.7078641346
0.6845263009
0.655539499
0.6198407335
0.5763353339
0.52401755
0.4621800902
0.3907520578
0.3108094203
0.2252933616
0.1399311831
0.06425027789
0.01236214383
0
0
0
0.7300894206
0.7300357907
0.7299297453
0.7297530398
0.7294821547
0.7290868792
0.7285285288
0.7277577105
0.7267115353
0.7253101418
0.7234523969
0.7210105999
0.7178240209
0.713691097
0.7083601503
0.7015185769
0.6927806327
0.6816742709
0.6676280678
0.6499602135
0.6278730877
0.600459305
0.5667286682
0.5256705418
0.4763729779
0.4182282309
0.351262599
0.2766326669
0.197320766
0.1190217446
0.05111009421
0.007366467764
0
0
0
0.6579823358
0.657932169
0.6578329719
0.6576676782
0.6574142889
0.6570445472
0.6565222727
0.6558012744
0.6548227448
0.6535120172
0.6517745547
0.6494910147
0.6465112363
0.6426469881
0.6376633691
0.6312688211
0.6231039056
0.6127293113
0.5996141187
0.5831262697
0.5625286721
0.5369866475
0.5055958475
0.4674446227
0.4217313404
0.3679650211
0.306285408
0.2379420735
0.1659623762
0.09599731255
0.03723263792
0.003046924587
0
0
0
0.5765810634
0.5765349615
0.5764438026
0.5762919035
0.5760590505
0.5757192792
0.5752393482
0.5745768223
0.5736776832
0.5724733567
0.57087704
0.5687791875
0.5660420204
0.562492919
0.5579166141
0.5520461546
0.5445528345
0.5350355452
0.5230105837
0.5079038174
0.489048536
0.4656944891
0.4370368642
0.4022785745
0.3607453496
0.3120805159
0.2565534084
0.1955181258
0.1320488995
0.07173760935
0.02353895956
0.0003483207734
0
0
0
0.4871562599
0.4871148396
0.4870329381
0.4868964662
0.4866872638
0.4863820087
0.4859508423
0.4853556547
0.4845479404
0.4834661394
0.4820323498
0.4801482992
0.4776904511
0.4745041394
0.4703966569
0.4651293224
0.4584087074
0.4498775238
0.4391061757
0.425586837
0.4087332553
0.3878915484
0.3623703063
0.3315026495
0.2947585894
0.2519328185
0.2034393741
0.1507465136
0.09697399947
0.04763431226
0.01140132978
0
0
0
0
0.3919965054
0.3919603743
0.3918889314
0.3917698885
0.3915874067
0.3913211461
0.3909450719
0.3904259586
0.3897215288
0.3887781423
0.387527949
0.3858854038
0.3837430476
0.3809664721
0.3773884229
0.3728020904
0.3669538015